============================== echo of input deck ==============================
start

title "Cn1cnc2c1c(=O)n(C)c(=O)n2C"

echo
geometry Cn1cnc2c1c(=O)n(C)c(=O)n2C
   C      3.3034     0.4700    -0.0316
   N      2.1199    -0.3833    -0.0065
   C      2.0910    -1.7385     0.0201
   N      0.8309    -2.2465     0.0200
   C      0.0615    -1.1393    -0.0058
   C      0.8256    -0.0236    -0.0246
   C      0.2367     1.2328    -0.0794
   O      0.9494     2.2731    -0.1181
   N     -1.1378     1.3070    -0.0997
   C     -1.7992     2.6190    -0.1952
   C     -1.8984     0.1487    -0.1098
   O     -3.1568     0.2254    -0.1964
   N     -1.2980    -1.0901    -0.0340
   C     -2.0938    -2.3243    -0.0677
   H      3.2877     1.1586     0.8390
   H      4.2268    -0.1453     0.0192
   H      3.3195     1.0601    -0.9718
   H      2.9785    -2.3581     0.0351
   H     -1.1921     3.4149     0.2866
   H     -1.9580     2.8787    -1.2630
   H     -2.7787     2.6123     0.3290
   H     -1.5398    -3.1747     0.3840
   H     -2.3468    -2.5750    -1.1193
   H     -3.0315    -2.2019     0.5154
end

basis spherical
* library 6-311G
end

driver
  tight
  maxiter 200
  xyz final
end

dft
direct
xc pbe0
noprint "final vectors analysis" multipole
end

set geometry Cn1cnc2c1c(=O)n(C)c(=O)n2C
task dft optimize

property
   shielding
end

cosmo
   solvent cdcl3
end

task dft property
================================================================================

         Total DFT energy =     -679.528296848010
@ Step       Energy      Delta E   Gmax     Grms     Xrms     Xmax   Walltime
@ ---- ---------------- -------- -------- -------- -------- -------- --------
@    0    -679.52829685  0.0D+00  0.03090  0.00811  0.00000  0.00000    319.5
         Total DFT energy =     -679.545046061828
         Total DFT energy =   -679.545046061828
@    1    -679.54504606 -1.7D-02  0.01499  0.00219  0.07577  0.25323    623.6
         Total DFT energy =     -679.545983584914
         Total DFT energy =   -679.545983584914
@    2    -679.54598358 -9.4D-04  0.00258  0.00056  0.01507  0.04223    879.7
         Total DFT energy =     -679.546089872969
         Total DFT energy =     -679.546089727685
@    3    -679.54608973 -1.1D-04  0.00094  0.00020  0.00588  0.02113   1146.3
         Total DFT energy =     -679.546114099826
         Total DFT energy =     -679.546117464067
@    4    -679.54611746 -2.8D-05  0.00072  0.00012  0.00447  0.01255   1452.9
         Total DFT energy =     -679.546128592640
         Total DFT energy =     -679.546131911599
@    5    -679.54613191 -1.4D-05  0.00084  0.00014  0.00487  0.01328   1699.2
         Total DFT energy =     -679.546143098598
         Total DFT energy =     -679.546149188728
@    6    -679.54614919 -1.7D-05  0.00068  0.00014  0.00821  0.02687   1972.8
         Total DFT energy =     -679.546158749764
         Total DFT energy =     -679.546161773661
@    7    -679.54616177 -1.3D-05  0.00036  0.00008  0.00521  0.01696   2190.0
         Total DFT energy =     -679.546166896731
         Total DFT energy =     -679.546168747261
@    8    -679.54616875 -7.0D-06  0.00076  0.00012  0.00514  0.01851   2508.9
         Total DFT energy =     -679.546173940432
         Total DFT energy =     -679.546178915315
@    9    -679.54617892 -1.0D-05  0.00055  0.00009  0.00386  0.01734   2724.7
         Total DFT energy =     -679.546190325557
         Total DFT energy =     -679.546196453521
@   10    -679.54619645 -1.8D-05  0.00100  0.00017  0.01429  0.06508   2966.5
         Total DFT energy =     -679.546208813913
         Total DFT energy =     -679.546224463555
@   11    -679.54622446 -2.8D-05  0.00129  0.00021  0.02399  0.10355   3258.4
         Total DFT energy =     -679.546251870702
         Total DFT energy =     -679.546288091304
@   12    -679.54628809 -6.4D-05  0.00434  0.00052  0.04489  0.19296   3576.5
         Total DFT energy =     -679.546363300196
         Total DFT energy =     -679.546412881231
@   13    -679.54641288 -1.2D-04  0.00142  0.00034  0.08634  0.37205   3920.0
         Total DFT energy =     -679.546474223697
         Total DFT energy =   -679.546474223697
@   14    -679.54647422 -6.1D-05  0.00193  0.00026  0.02473  0.11666   4108.0
         Total DFT energy =     -679.546516786028
         Total DFT energy =     -679.546519298920
@   15    -679.54651930 -4.5D-05  0.00129  0.00022  0.03249  0.13995   4374.7
         Total DFT energy =     -679.546544199206
         Total DFT energy =     -679.546548571153
@   16    -679.54654857 -2.9D-05  0.00182  0.00023  0.02526  0.10045   4695.4
         Total DFT energy =     -679.546563812187
         Total DFT energy =     -679.546572165877
@   17    -679.54657217 -2.4D-05  0.00060  0.00010  0.00550  0.03001   4911.6
         Total DFT energy =     -679.546578753499
         Total DFT energy =     -679.546578734825
@   18    -679.54657873 -6.6D-06  0.00029  0.00007  0.00607  0.01874   5229.9
         Total DFT energy =     -679.546581738216
         Total DFT energy =   -679.546581738216
@   19    -679.54658174 -3.0D-06  0.00013  0.00003  0.00130  0.00523   5367.0
         Total DFT energy =     -679.546583477651
         Total DFT energy =   -679.546583477651
@   20    -679.54658348 -1.7D-06  0.00007  0.00002  0.00081  0.00265   5504.3
         Total DFT energy =     -679.546584454790
         Total DFT energy =   -679.546584454790
@   21    -679.54658445 -9.8D-07  0.00006  0.00002  0.00248  0.00952   5641.4
         Total DFT energy =     -679.546585514951
         Total DFT energy =   -679.546585514951
@   22    -679.54658551 -1.1D-06  0.00005  0.00002  0.00119  0.00370   5778.4
         Total DFT energy =     -679.546586542798
         Total DFT energy =   -679.546586542798
@   23    -679.54658654 -1.0D-06  0.00008  0.00002  0.00286  0.01055   5916.0
         Total DFT energy =     -679.546587298341
         Total DFT energy =   -679.546587298341
@   24    -679.54658730 -7.6D-07  0.00005  0.00001  0.00182  0.00454   6053.4
         Total DFT energy =     -679.546587936855
         Total DFT energy =   -679.546587936855
@   25    -679.54658794 -6.4D-07  0.00007  0.00002  0.00274  0.00814   6190.6
         Total DFT energy =     -679.546588407102
         Total DFT energy =   -679.546588407102
@   26    -679.54658841 -4.7D-07  0.00003  0.00001  0.00134  0.00446   6327.5
         Total DFT energy =     -679.546589312091
         Total DFT energy =   -679.546589312091
@   27    -679.54658931 -9.0D-07  0.00007  0.00002  0.00268  0.01001   6464.4
         Total DFT energy =     -679.546590174497
         Total DFT energy =   -679.546590174497
@   28    -679.54659017 -8.6D-07  0.00013  0.00002  0.00257  0.00935   6601.1
         Total DFT energy =     -679.546589381328
         Total DFT energy =   -679.546589381328
@   29    -679.54658938  7.9D-07  0.00014  0.00003  0.00581  0.02341   6738.4
         Total DFT energy =     -679.546594212404
         Total DFT energy =   -679.546594212404
@   30    -679.54659421 -4.8D-06  0.00013  0.00003  0.00550  0.02357   6926.8
         Total DFT energy =     -679.546593651701
         Total DFT energy =   -679.546593651701
@   31    -679.54659365  5.6D-07  0.00009  0.00002  0.00905  0.03861   7089.4
         Total DFT energy =     -679.546597733833
         Total DFT energy =   -679.546597733833
@   32    -679.54659773 -4.1D-06  0.00010  0.00002  0.00520  0.02523   7226.4
         Total DFT energy =   -679.546602370028
@   58    -679.54660237  2.3D-09  0.00000  0.00000  0.00004  0.00012  10349.9
         Total DFT energy =     -679.546602372372
         Total DFT energy =   -679.546602372372
@   59    -679.54660237 -2.3D-09  0.00000  0.00000  0.00005  0.00028  10460.9
         Total DFT energy =     -679.546602361413
         Total DFT energy =   -679.546602361413
@   60    -679.54660236  1.1D-08  0.00000  0.00000  0.00009  0.00044  10571.9
         Total DFT energy =     -679.546602337978
         Total DFT energy =   -679.546602337978
@   61    -679.54660234  2.3D-08  0.00001  0.00000  0.00013  0.00073  10682.8
         Total DFT energy =     -679.546602292326
         Total DFT energy =   -679.546602292326
@   62    -679.54660229  4.6D-08  0.00001  0.00000  0.00008  0.00043  10793.7
         Total DFT energy =     -679.546602365673
         Total DFT energy =   -679.546602365673
@   63    -679.54660237 -7.3D-08  0.00001  0.00000  0.00003  0.00013  10904.7
         Total DFT energy =     -679.546602371136
         Total DFT energy =   -679.546602371136
@   64    -679.54660237 -5.5D-09  0.00000  0.00000  0.00003  0.00014  11015.6
         Total DFT energy =     -679.546602368444
         Total DFT energy =   -679.546602368444
@   65    -679.54660237  2.7D-09  0.00000  0.00000  0.00003  0.00014  11126.3
         Total DFT energy =     -679.546602372340
         Total DFT energy =   -679.546602372340
@   66    -679.54660237 -3.9D-09  0.00000  0.00000  0.00002  0.00007  11236.7
         Total DFT energy =     -679.546602372520
         Total DFT energy =   -679.546602372520
@   67    -679.54660237 -1.8D-10  0.00000  0.00000  0.00003  0.00011  11347.5
         Total DFT energy =     -679.546602372169
         Total DFT energy =   -679.546602372169
@   68    -679.54660237  3.5D-10  0.00000  0.00000  0.00002  0.00010  11458.3
         Total DFT energy =     -679.546602373374
         Total DFT energy =   -679.546602373374
@   69    -679.54660237 -1.2D-09  0.00000  0.00000  0.00002  0.00009  11568.9
         Total DFT energy =     -679.546602372585
         Total DFT energy =   -679.546602372585
@   70    -679.54660237  7.9D-10  0.00000  0.00000  0.00002  0.00010  11679.5
         Total DFT energy =     -679.546602373171
         Total DFT energy =   -679.546602373171
@   71    -679.54660237 -5.9D-10  0.00000  0.00000  0.00002  0.00008  11790.4
         Total DFT energy =     -679.546602373365
         Total DFT energy =   -679.546602373365
@   72    -679.54660237 -1.9D-10  0.00000  0.00000  0.00002  0.00009  11901.4
         Total DFT energy =     -679.546602373451
         Total DFT energy =   -679.546602373451
@   73    -679.54660237 -8.7D-11  0.00000  0.00000  0.00002  0.00008  12011.9
         Total DFT energy =     -679.546602374027
         Total DFT energy =   -679.546602374027
@   74    -679.54660237 -5.8D-10  0.00000  0.00000  0.00002  0.00008  12122.6
         Total DFT energy =     -679.546602373822
         Total DFT energy =   -679.546602373822
@   75    -679.54660237  2.1D-10  0.00000  0.00000  0.00002  0.00008  12234.2
         Total DFT energy =     -679.546602374047
         Total DFT energy =   -679.546602374047
@   76    -679.54660237 -2.3D-10  0.00000  0.00000  0.00002  0.00008  12344.9
         Total DFT energy =     -679.546602374242
         Total DFT energy =   -679.546602374242
@   77    -679.54660237 -2.0D-10  0.00000  0.00000  0.00002  0.00008  12455.8
         Total DFT energy =     -679.546602374233
         Total DFT energy =   -679.546602374233
@   78    -679.54660237  9.2D-12  0.00000  0.00000  0.00002  0.00008  12566.5
         Total DFT energy =     -679.546602374571
         Total DFT energy =   -679.546602374571
@   79    -679.54660237 -3.4D-10  0.00000  0.00000  0.00002  0.00007  12677.3
         Total DFT energy =     -679.546602374548
         Total DFT energy =   -679.546602374548
@   80    -679.54660237  2.3D-11  0.00000  0.00000  0.00002  0.00007  12788.3
         Total DFT energy =     -679.546602375102
         Total DFT energy =   -679.546602375102
@   81    -679.54660238 -5.5D-10  0.00000  0.00000  0.00002  0.00007  12899.1
         Total DFT energy =     -679.546602375566
         Total DFT energy =   -679.546602375566
@   82    -679.54660238 -4.6D-10  0.00000  0.00000  0.00002  0.00007  13010.0
         Total DFT energy =     -679.546602375643
         Total DFT energy =   -679.546602375643
@   83    -679.54660238 -7.7D-11  0.00000  0.00000  0.00002  0.00007  13120.7
         Total DFT energy =     -679.546602375926
         Total DFT energy =   -679.546602375926
@   84    -679.54660238 -2.8D-10  0.00000  0.00000  0.00001  0.00007  13231.4
         Total DFT energy =     -679.546602376004
         Total DFT energy =   -679.546602376004
@   85    -679.54660238 -7.9D-11  0.00000  0.00000  0.00001  0.00007  13342.3
         Total DFT energy =     -679.546602376137
         Total DFT energy =   -679.546602376137
@   86    -679.54660238 -1.3D-10  0.00000  0.00000  0.00001  0.00006  13453.3
         Total DFT energy =     -679.546602376204
         Total DFT energy =   -679.546602376204
@   87    -679.54660238 -6.7D-11  0.00000  0.00000  0.00001  0.00006  13564.2
         Total DFT energy =     -679.546602376397
         Total DFT energy =   -679.546602376397
@   88    -679.54660238 -1.9D-10  0.00000  0.00000  0.00001  0.00006  13675.0
         Total DFT energy =     -679.546602376366
         Total DFT energy =   -679.546602376366
@   89    -679.54660238  3.0D-11  0.00000  0.00000  0.00001  0.00006  13786.0
         Total DFT energy =     -679.546602376359
         Total DFT energy =   -679.546602376359
@   90    -679.54660238  7.7D-12  0.00000  0.00000  0.00001  0.00006  13896.9
@   90    -679.54660238  7.7D-12  0.00000  0.00000  0.00001  0.00006  13896.9

 Output coordinates in angstroms (scale by  1.889725989 to convert to a.u.)

  No.       Tag          Charge          X              Y              Z
 ---- ---------------- ---------- -------------- -------------- --------------
    1 C                    6.0000     1.03003922    -3.29485870     0.04998562
    2 N                    7.0000    -0.00790015    -2.27579677     0.02914651
    3 C                    6.0000    -1.35475060    -2.46470824     0.02563124
    4 N                    7.0000    -2.04126823    -1.31439041     0.00228005
    5 C                    6.0000    -1.07203325    -0.34987064    -0.00969436
    6 C                    6.0000     0.19169401    -0.90244788     0.00616480
    7 C                    6.0000     1.38351895    -0.12747732    -0.00041372
    8 O                    8.0000     2.55182922    -0.57057411     0.01392326
    9 N                    7.0000     1.10570170     1.25423328    -0.02570299
   10 C                    6.0000     2.23745306     2.18151335    -0.03544118
   11 C                    6.0000    -0.16402888     1.85228205    -0.04272010
   12 O                    8.0000    -0.29483282     3.08807498    -0.06468917
   13 N                    7.0000    -1.26222573     1.00768477    -0.03385372
   14 C                    6.0000    -2.59712403     1.59560924    -0.05092834
   15 H                    1.0000     1.66332044    -3.16950058     0.92523493
   16 H                    1.0000     0.55487501    -4.27310656     0.07819199
   17 H                    1.0000     1.65413598    -3.21611965    -0.83741810
   18 H                    1.0000    -1.80157725    -3.44189732     0.04038114
   19 H                    1.0000     3.14379826     1.58470132    -0.02056676
   20 H                    1.0000     2.20274287     2.80218367    -0.92894948
   21 H                    1.0000     2.19351507     2.83204812     0.83615484
   22 H                    1.0000    -3.31520218     0.78077935    -0.03819357
   23 H                    1.0000    -2.72830429     2.20073911    -0.94658702
   24 H                    1.0000    -2.73555762     2.23497409     0.81945743

         Total DFT energy =     -679.571486914970
      Atom:    1  C
           isotropic =     160.2355
      Atom:    2  N
           isotropic =      80.4525
      Atom:    3  C
           isotropic =      45.8720
      Atom:    4  N
           isotropic =       2.4857
      Atom:    5  C
           isotropic =      44.2488
      Atom:    6  C
           isotropic =      81.0357
      Atom:    7  C
           isotropic =      34.1044
      Atom:    8  O
           isotropic =     -40.3662
      Atom:    9  N
           isotropic =      86.1644
      Atom:   10  C
           isotropic =     167.4260
      Atom:   11  C
           isotropic =      36.3353
      Atom:   12  O
           isotropic =     -10.4336
      Atom:   13  N
           isotropic =     122.4496
      Atom:   14  C
           isotropic =     164.7527
      Atom:   15  H
           isotropic =      28.6062
      Atom:   16  H
           isotropic =      28.6942
      Atom:   17  H
           isotropic =      28.6265
      Atom:   18  H
           isotropic =      24.9036
      Atom:   19  H
           isotropic =      28.3384
      Atom:   20  H
           isotropic =      29.6850
      Atom:   21  H
           isotropic =      29.6811
      Atom:   22  H
           isotropic =      28.5253
      Atom:   23  H
           isotropic =      29.3521
      Atom:   24  H
           isotropic =      29.3545
 Total times  cpu:    15520.2s     wall:    15526.0s
