============================== echo of input deck ==============================
start

title "Cn1cnc2c1c(=O)n(C)c(=O)n2C"

echo
geometry Cn1cnc2c1c(=O)n(C)c(=O)n2C
   C  3.30340846 0.47000608 -0.03161645
   N  2.11987459 -0.38333189 -0.00651515
   C  2.09103313 -1.73853009 0.02009390
   N  0.83092037 -2.24647101 0.01999569
   C  0.06149686 -1.13925158 -0.00575048
   C  0.82564883 -0.02358616 -0.02455967
   C  0.23665877 1.23279574 -0.07941249
   O  0.94939668 2.27310930 -0.11805901
   N  -1.13779613 1.30695045 -0.09965269
   C  -1.79918930 2.61904164 -0.19522062
   C  -1.89838781 0.14867362 -0.10980440
   O  -3.15683954 0.22540074 -0.19638501
   N  -1.29799185 -1.09011398 -0.03398248
   C  -2.09382770 -2.32430871 -0.06769597
   H  3.28772959 1.15863172 0.83902733
   H  4.22682917 -0.14533949 0.01918096
   H  3.31948965 1.06011126 -0.97181094
   H  2.97849185 -2.35811931 0.03505974
   H  -1.19207500 3.41490998 0.28663735
   H  -1.95803833 2.87866627 -1.26299232
   H  -2.77868989 2.61232955 0.32901053
   H  -1.53983039 -3.17473741 0.38401717
   H  -2.34679133 -2.57496642 -1.11931750
   H  -3.03152068 -2.20187033 0.51544577
end

basis spherical
* library 6-311G
end

driver
  tight
  maxiter 200
  xyz final
end

relativistic
  zora on
  zora:cutoff_NMR 1d-8
  zora:cutoff 1d-30
end

dft
  direct
  grid fine
 xc b3lyp
  mult 1
  noprint "final vectors analysis" multipole
end

set geometry Cn1cnc2c1c(=O)n(C)c(=O)n2C
task dft optimize

property
   shielding
end

cosmo
   solvent cdcl3
end

task dft property
================================================================================

         Total DFT energy =     -680.817686469314
@ Step       Energy      Delta E   Gmax     Grms     Xrms     Xmax   Walltime
@ ---- ---------------- -------- -------- -------- -------- -------- --------
@    0    -680.81768647  0.0D+00  0.03830  0.00913  0.00000  0.00000    386.0
         Total DFT energy =     -680.835903258208
         Total DFT energy =   -680.835903258208
@    1    -680.83590326 -1.8D-02  0.01789  0.00244  0.07681  0.27522    716.8
         Total DFT energy =     -680.837040012251
         Total DFT energy =   -680.837040012251
@    2    -680.83704001 -1.1D-03  0.00242  0.00061  0.01513  0.05020   1024.3
         Total DFT energy =     -680.837159800695
         Total DFT energy =   -680.837159800695
@    3    -680.83715980 -1.2D-04  0.00136  0.00021  0.00575  0.02258   1318.2
         Total DFT energy =     -680.837181087453
         Total DFT energy =     -680.837182292747
@    4    -680.83718229 -2.2D-05  0.00075  0.00011  0.00318  0.00677   1745.8
         Total DFT energy =     -680.837193512923
         Total DFT energy =     -680.837195022076
@    5    -680.83719502 -1.3D-05  0.00039  0.00011  0.00517  0.01335   2190.2
         Total DFT energy =     -680.837204080245
         Total DFT energy =     -680.837212455158
@    6    -680.83721246 -1.7D-05  0.00091  0.00017  0.00982  0.03148   2635.2
         Total DFT energy =     -680.837221392273
         Total DFT energy =     -680.837222846911
@    7    -680.83722285 -1.0D-05  0.00020  0.00005  0.00250  0.00821   3020.6
         Total DFT energy =     -680.837228009087
         Total DFT energy =     -680.837229181635
@    8    -680.83722918 -6.3D-06  0.00037  0.00008  0.00549  0.01843   3471.7
         Total DFT energy =     -680.837234271925
         Total DFT energy =     -680.837237692330
@    9    -680.83723769 -8.5D-06  0.00086  0.00014  0.01018  0.03627   3930.1
         Total DFT energy =     -680.837247974386
         Total DFT energy =     -680.837256310495
@   10    -680.83725631 -1.9D-05  0.00218  0.00025  0.00997  0.04167   4428.8
         Total DFT energy =     -680.837269742686
         Total DFT energy =     -680.837273262960
@   11    -680.83727326 -1.7D-05  0.00047  0.00008  0.00809  0.03246   4860.3
         Total DFT energy =     -680.837290455595
         Total DFT energy =     -680.837307135843
@   12    -680.83730714 -3.4D-05  0.00226  0.00030  0.03811  0.16111   5338.0
         Total DFT energy =     -680.837350425871
         Total DFT energy =     -680.837384122171
@   13    -680.83738412 -7.7D-05  0.00134  0.00035  0.10014  0.43648   5859.8
         Total DFT energy =     -680.837482506007
         Total DFT energy =     -680.837492619820
@   14    -680.83749262 -1.1D-04  0.00137  0.00021  0.02531  0.11662   6339.4
         Total DFT energy =     -680.837540942181
         Total DFT energy =     -680.837551404119
@   15    -680.83755140 -5.9D-05  0.00191  0.00024  0.04604  0.18959   6843.5
         Total DFT energy =     -680.837575360908
         Total DFT energy =     -680.837582149817
@   16    -680.83758215 -3.1D-05  0.00148  0.00018  0.01747  0.07175   7327.9
         Total DFT energy =     -680.837598740990
         Total DFT energy =     -680.837603835185
@   17    -680.83760384 -2.2D-05  0.00055  0.00010  0.00763  0.03882   7792.9
         Total DFT energy =     -680.837613041733
         Total DFT energy =     -680.837614877543
@   18    -680.83761488 -1.1D-05  0.00071  0.00009  0.01751  0.06808   8280.8
         Total DFT energy =     -680.837617796135
         Total DFT energy =   -680.837617796135
@   19    -680.83761780 -2.9D-06  0.00026  0.00004  0.00819  0.03593   8516.4
         Total DFT energy =     -680.837619816534
         Total DFT energy =   -680.837619816534
@   20    -680.83761982 -2.0D-06  0.00010  0.00002  0.00146  0.00469   8756.2
         Total DFT energy =     -680.837621237395
         Total DFT energy =   -680.837621237395
@   21    -680.83762124 -1.4D-06  0.00019  0.00003  0.00161  0.00492   9016.8
         Total DFT energy =     -680.837621851618
         Total DFT energy =   -680.837621851618
@   22    -680.83762185 -6.1D-07  0.00008  0.00002  0.00178  0.00676   9256.6
         Total DFT energy =     -680.837622814680
         Total DFT energy =   -680.837622814680
@   23    -680.83762281 -9.6D-07  0.00007  0.00001  0.00280  0.01056   9496.1
         Total DFT energy =     -680.837623136678
         Total DFT energy =   -680.837623136678
@   24    -680.83762314 -3.2D-07  0.00011  0.00002  0.00200  0.00632   9733.5
         Total DFT energy =     -680.837624027742
         Total DFT energy =   -680.837624027742
@   25    -680.83762403 -8.9D-07  0.00009  0.00002  0.00212  0.00589   9972.6
         Total DFT energy =     -680.837624594284
         Total DFT energy =   -680.837624594284
@   26    -680.83762459 -5.7D-07  0.00008  0.00001  0.00181  0.00465  10212.0
         Total DFT energy =     -680.837624684457
         Total DFT energy =   -680.837624684457
@   27    -680.83762468 -9.0D-08  0.00005  0.00001  0.00181  0.00547  10451.2
         Total DFT energy =     -680.837625742556
         Total DFT energy =   -680.837625742556
@   28    -680.83762574 -1.1D-06  0.00010  0.00002  0.00197  0.00616  10691.8
         Total DFT energy =     -680.837626709989
         Total DFT energy =   -680.837626709989
@   29    -680.83762671 -9.7D-07  0.00014  0.00003  0.00353  0.01331  10932.9
         Total DFT energy =     -680.837627715723
         Total DFT energy =   -680.837627715723
@   30    -680.83762772 -1.0D-06  0.00014  0.00003  0.00392  0.01601  11174.0
         Total DFT energy =     -680.837629670449
         Total DFT energy =   -680.837629670449
@   31    -680.83762967 -2.0D-06  0.00014  0.00002  0.00608  0.02599  11417.0
         Total DFT energy =     -680.837631559690
         Total DFT energy =   -680.837631559690
@   32    -680.83763156 -1.9D-06  0.00010  0.00002  0.00550  0.02492  11704.0
         Total DFT energy =   -680.837638132970
@   41    -680.83763813 -1.0D-07  0.00004  0.00001  0.00021  0.00090  13906.5
         Total DFT energy =     -680.837638070299
         Total DFT energy =   -680.837638070299
@   42    -680.83763807  6.3D-08  0.00012  0.00002  0.00163  0.00742  14197.7
         Total DFT energy =     -680.837637903984
         Total DFT energy =   -680.837637903984
@   43    -680.83763790  1.7D-07  0.00002  0.00000  0.00098  0.00443  14445.3
         Total DFT energy =     -680.837638171627
         Total DFT energy =   -680.837638171627
@   44    -680.83763817 -2.7D-07  0.00001  0.00000  0.00006  0.00026  14672.3
         Total DFT energy =     -680.837638162392
         Total DFT energy =   -680.837638162392
@   45    -680.83763816  9.2D-09  0.00002  0.00000  0.00018  0.00067  14896.9
         Total DFT energy =     -680.837638077305
         Total DFT energy =   -680.837638077305
@   46    -680.83763808  8.5D-08  0.00005  0.00001  0.00049  0.00177  15124.2
         Total DFT energy =     -680.837637470628
         Total DFT energy =   -680.837637470628
@   47    -680.83763747  6.1D-07  0.00005  0.00001  0.00020  0.00083  15353.3
         Total DFT energy =     -680.837638152763
         Total DFT energy =   -680.837638152763
@   48    -680.83763815 -6.8D-07  0.00002  0.00000  0.00008  0.00035  15582.8
         Total DFT energy =     -680.837638166384
         Total DFT energy =   -680.837638166384
@   49    -680.83763817 -1.4D-08  0.00002  0.00000  0.00025  0.00105  15814.0
         Total DFT energy =     -680.837637967821
         Total DFT energy =   -680.837637967821
@   50    -680.83763797  2.0D-07  0.00001  0.00000  0.00010  0.00037  16042.9
         Total DFT energy =     -680.837638175631
         Total DFT energy =   -680.837638175631
@   51    -680.83763818 -2.1D-07  0.00001  0.00000  0.00016  0.00045  16272.2
         Total DFT energy =     -680.837638093794
         Total DFT energy =   -680.837638093794
@   52    -680.83763809  8.2D-08  0.00001  0.00000  0.00017  0.00054  16502.5
         Total DFT energy =     -680.837638144300
         Total DFT energy =   -680.837638144300
@   53    -680.83763814 -5.1D-08  0.00004  0.00001  0.00036  0.00134  16730.8
         Total DFT energy =     -680.837637690203
         Total DFT energy =   -680.837637690203
@   54    -680.83763769  4.5D-07  0.00002  0.00000  0.00018  0.00068  16961.6
         Total DFT energy =     -680.837638175686
         Total DFT energy =   -680.837638175686
@   55    -680.83763818 -4.9D-07  0.00000  0.00000  0.00013  0.00053  17193.5
         Total DFT energy =     -680.837638124842
         Total DFT energy =   -680.837638124842
@   56    -680.83763812  5.1D-08  0.00001  0.00000  0.00009  0.00040  17426.2
         Total DFT energy =     -680.837638173845
         Total DFT energy =   -680.837638173845
@   57    -680.83763817 -4.9D-08  0.00001  0.00000  0.00034  0.00149  17656.9
         Total DFT energy =     -680.837638154911
         Total DFT energy =   -680.837638154911
@   58    -680.83763815  1.9D-08  0.00000  0.00000  0.00010  0.00041  17889.1
         Total DFT energy =     -680.837638164821
         Total DFT energy =   -680.837638164821
@   59    -680.83763816 -9.9D-09  0.00001  0.00000  0.00013  0.00059  18123.1
         Total DFT energy =     -680.837638123012
         Total DFT energy =   -680.837638123012
@   60    -680.83763812  4.2D-08  0.00001  0.00000  0.00024  0.00107  18357.1
         Total DFT energy =     -680.837638053576
         Total DFT energy =   -680.837638053576
@   61    -680.83763805  6.9D-08  0.00001  0.00000  0.00013  0.00058  18593.5
         Total DFT energy =     -680.837638174013
         Total DFT energy =   -680.837638174013
@   62    -680.83763817 -1.2D-07  0.00001  0.00000  0.00007  0.00034  18827.9
         Total DFT energy =     -680.837638168287
         Total DFT energy =   -680.837638168287
@   63    -680.83763817  5.7D-09  0.00001  0.00000  0.00005  0.00024  19061.9
         Total DFT energy =     -680.837638175491
         Total DFT energy =   -680.837638175491
@   64    -680.83763818 -7.2D-09  0.00001  0.00000  0.00003  0.00012  19295.2
         Total DFT energy =     -680.837638175318
         Total DFT energy =   -680.837638175318
@   65    -680.83763818  1.7D-10  0.00000  0.00000  0.00004  0.00013  19529.8
         Total DFT energy =     -680.837638171369
         Total DFT energy =   -680.837638171369
@   66    -680.83763817  3.9D-09  0.00000  0.00000  0.00005  0.00013  19767.9
         Total DFT energy =     -680.837638170794
         Total DFT energy =   -680.837638170794
@   67    -680.83763817  5.8D-10  0.00000  0.00000  0.00007  0.00019  20002.9
         Total DFT energy =     -680.837638150253
         Total DFT energy =   -680.837638150253
@   68    -680.83763815  2.1D-08  0.00001  0.00000  0.00011  0.00030  20240.9
         Total DFT energy =     -680.837638131958
         Total DFT energy =   -680.837638131958
@   69    -680.83763813  1.8D-08  0.00001  0.00000  0.00016  0.00046  20479.0
         Total DFT energy =     -680.837638042846
         Total DFT energy =   -680.837638042846
@   70    -680.83763804  8.9D-08  0.00001  0.00000  0.00010  0.00026  20716.6
         Total DFT energy =     -680.837638172691
         Total DFT energy =   -680.837638172691
@   71    -680.83763817 -1.3D-07  0.00001  0.00000  0.00003  0.00010  20952.8
         Total DFT energy =     -680.837638177682
         Total DFT energy =   -680.837638177682
@   72    -680.83763818 -5.0D-09  0.00000  0.00000  0.00002  0.00007  21190.7
         Total DFT energy =     -680.837638173450
         Total DFT energy =   -680.837638173450
@   73    -680.83763817  4.2D-09  0.00001  0.00000  0.00001  0.00002  21428.9
@   73    -680.83763817  4.2D-09  0.00001  0.00000  0.00001  0.00002  21428.9

 Output coordinates in angstroms (scale by  1.889725989 to convert to a.u.)

  No.       Tag          Charge          X              Y              Z
 ---- ---------------- ---------- -------------- -------------- --------------
    1 C                    6.0000     1.03658994    -3.31571206     0.04973970
    2 N                    7.0000    -0.00703615    -2.28653387     0.02904618
    3 C                    6.0000    -1.36095732    -2.47587623     0.02538800
    4 N                    7.0000    -2.04869650    -1.32128544     0.00210733
    5 C                    6.0000    -1.07582390    -0.35085719    -0.00976989
    6 C                    6.0000     0.19188320    -0.90438539     0.00609410
    7 C                    6.0000     1.38825843    -0.12819514    -0.00028581
    8 O                    8.0000     2.56005344    -0.57540234     0.01421521
    9 N                    7.0000     1.11272089     1.26431969    -0.02562430
   10 C                    6.0000     2.25566952     2.19690368    -0.03525445
   11 C                    6.0000    -0.16552498     1.86504462    -0.04264350
   12 O                    8.0000    -0.29903835     3.10481373    -0.06447140
   13 N                    7.0000    -1.26938630     1.01321098    -0.03387129
   14 C                    6.0000    -2.61663055     1.60286410    -0.05082552
   15 H                    1.0000     1.66968384    -3.19096265     0.92426969
   16 H                    1.0000     0.55756796    -4.29149237     0.07903121
   17 H                    1.0000     1.65877531    -3.23883663    -0.83829744
   18 H                    1.0000    -1.80866820    -3.45193389     0.03996583
   19 H                    1.0000     3.15987212     1.59964999    -0.02061813
   20 H                    1.0000     2.22100217     2.81678781    -0.92835664
   21 H                    1.0000     2.21196002     2.84619191     0.83630870
   22 H                    1.0000    -3.33195234     0.78738110    -0.03984521
   23 H                    1.0000    -2.74700823     2.20856023    -0.94525447
   24 H                    1.0000    -2.75546461     2.23981397     0.82030256

         Total DFT energy =     -680.862419170210
      Atom:    1  C
           isotropic =     153.4475
      Atom:    2  N
           isotropic =      70.0235
      Atom:    3  C
           isotropic =      38.1950
      Atom:    4  N
           isotropic =      -9.8273
      Atom:    5  C
           isotropic =      35.2117
      Atom:    6  C
           isotropic =      72.4062
      Atom:    7  C
           isotropic =      25.3575
      Atom:    8  O
           isotropic =     -52.4553
      Atom:    9  N
           isotropic =      73.6039
      Atom:   10  C
           isotropic =     160.8550
      Atom:   11  C
           isotropic =      27.1536
      Atom:   12  O
           isotropic =     -22.3623
      Atom:   13  N
           isotropic =     111.0949
      Atom:   14  C
           isotropic =     158.0707
      Atom:   15  H
           isotropic =      28.7232
      Atom:   16  H
           isotropic =      28.8179
      Atom:   17  H
           isotropic =      28.7437
      Atom:   18  H
           isotropic =      25.0350
      Atom:   19  H
           isotropic =      28.4791
      Atom:   20  H
           isotropic =      29.7866
      Atom:   21  H
           isotropic =      29.7829
      Atom:   22  H
           isotropic =      28.6525
      Atom:   23  H
           isotropic =      29.4517
      Atom:   24  H
           isotropic =      29.4551
 Total times  cpu:    34717.0s     wall:    34731.9s
